/*--------------------------------*- C++ -*----------------------------------*\
| =========                 |                                                 |
| \\      /  F ield         | OpenFOAM: The Open Source CFD Toolbox           |
|  \\    /   O peration     | Version:  v2006                                 |
|   \\  /    A nd           | Website:  www.openfoam.com                      |
|    \\/     M anipulation  |                                                 |
\*---------------------------------------------------------------------------*/
FoamFile
{
    version     2.0;
    format      ascii;
    class       volVectorField;
    location    "0";
    object      C;
}
// * * * * * * * * * * * * * * * * * * * * * * * * * * * * * * * * * * * * * //

dimensions      [0 1 0 0 0 0 0];


internalField   nonuniform List<vector> 8((0.25 0.25 0.25) (0.75 0.25 0.25) (0.25 0.75 0.25) (0.75 0.75 0.25) (0.25 0.25 0.75) (0.75 0.25 0.75) (0.25 0.75 0.75) (0.75 0.75 0.75));

boundaryField
{
    valueBoundary
    {
        type            calculated;
        value           nonuniform List<vector> 8((0 0.25 0.25) (0 0.75 0.25) (0 0.25 0.75) (0 0.75 0.75) (1 0.25 0.25) (1 0.75 0.25) (1 0.25 0.75) (1 0.75 0.75));
    }
    zeroGradBoundary
    {
        type            calculated;
        value           nonuniform List<vector> 8((0.25 0.25 0) (0.25 0.75 0) (0.75 0.25 0) (0.75 0.75 0) (0.25 0.25 1) (0.25 0.75 1) (0.75 0.25 1) (0.75 0.75 1));
    }
    emptyBoundary
    {
        type            empty;
    }
}


// ************************************************************************* //
