/*--------------------------------*- C++ -*----------------------------------*\
| =========                 |                                                 |
| \\      /  F ield         | OpenFOAM: The Open Source CFD Toolbox           |
|  \\    /   O peration     | Version:  v2006                                 |
|   \\  /    A nd           | Website:  www.openfoam.com                      |
|    \\/     M anipulation  |                                                 |
\*---------------------------------------------------------------------------*/
FoamFile
{
    version     2.0;
    format      ascii;
    class       volScalarField;
    object      p;
}
// * * * * * * * * * * * * * * * * * * * * * * * * * * * * * * * * * * * * * //

dimensions      [0 2 -2 0 0 0 0];

internalField   nonuniform List<scalar> 8(1 2 3 4 5 6 7 8);

boundaryField
{
    valueBoundary
    {
        type            calculated;
        value           nonuniform List<scalar> 8(9 10 11 12 13 14 15 16);
    }
    zeroGradBoundary
    {
        type            zeroGradient;
    }
    emptyBoundary
    {
        type            empty;
    }
}

// ************************************************************************* //
