/*--------------------------------*- C++ -*----------------------------------*\
| =========                 |                                                 |
| \\      /  F ield         | OpenFOAM: The Open Source CFD Toolbox           |
|  \\    /   O peration     | Version:  v2006                                 |
|   \\  /    A nd           | Website:  www.openfoam.com                      |
|    \\/     M anipulation  |                                                 |
\*---------------------------------------------------------------------------*/
FoamFile
{
    version     2.0;
    format      ascii;
    class       volVectorField;
    object      U;
}
// * * * * * * * * * * * * * * * * * * * * * * * * * * * * * * * * * * * * * //

dimensions      [0 1 -1 0 0 0 0];

internalField   nonuniform List<vector> 8((1 2 3) (4 5 6) (7 8 9) (10 11 12) (13 14 15) (16 17 18) (19 20 21) (22 23 24));

boundaryField
{
    valueBoundary
    {
        type            calculated;
        value           nonuniform List<vector> 8((25 26 27) (28 29 30) (31 32 33) (34 35 36) (37 38 39) (40 41 42) (43 44 45) (46 47 48));
    }
    zeroGradBoundary
    {
        type            zeroGradient;
    }
    emptyBoundary
    {
        type            empty;
    }
}

// ************************************************************************* //
