/*--------------------------------*- C++ -*----------------------------------*\
| =========                 |                                                 |
| \\      /  F ield         | OpenFOAM: The Open Source CFD Toolbox           |
|  \\    /   O peration     | Version:  v2006                                 |
|   \\  /    A nd           | Website:  www.openfoam.com                      |
|    \\/     M anipulation  |                                                 |
\*---------------------------------------------------------------------------*/
FoamFile
{
    version     2.0;
    format      ascii;
    class       volVectorField;
    location    "0.005";
    object      C;
}
// * * * * * * * * * * * * * * * * * * * * * * * * * * * * * * * * * * * * * //

dimensions      [0 1 0 0 0 0 0];


internalField   nonuniform List<vector> 
64
(
(0.125 0.125 0.125)
(0.625 0.125 0.125)
(0.125 0.625 0.125)
(0.625 0.625 0.125)
(0.125 0.125 0.625)
(0.625 0.125 0.625)
(0.125 0.625 0.625)
(0.625 0.625 0.625)
(0.375 0.125 0.125)
(0.125 0.375 0.125)
(0.375 0.375 0.125)
(0.125 0.125 0.375)
(0.375 0.125 0.375)
(0.125 0.375 0.375)
(0.375 0.375 0.375)
(0.875 0.125 0.125)
(0.625 0.375 0.125)
(0.875 0.375 0.125)
(0.625 0.125 0.375)
(0.875 0.125 0.375)
(0.625 0.375 0.375)
(0.875 0.375 0.375)
(0.375 0.625 0.125)
(0.125 0.875 0.125)
(0.375 0.875 0.125)
(0.125 0.625 0.375)
(0.375 0.625 0.375)
(0.125 0.875 0.375)
(0.375 0.875 0.375)
(0.875 0.625 0.125)
(0.625 0.875 0.125)
(0.875 0.875 0.125)
(0.625 0.625 0.375)
(0.875 0.625 0.375)
(0.625 0.875 0.375)
(0.875 0.875 0.375)
(0.375 0.125 0.625)
(0.125 0.375 0.625)
(0.375 0.375 0.625)
(0.125 0.125 0.875)
(0.375 0.125 0.875)
(0.125 0.375 0.875)
(0.375 0.375 0.875)
(0.875 0.125 0.625)
(0.625 0.375 0.625)
(0.875 0.375 0.625)
(0.625 0.125 0.875)
(0.875 0.125 0.875)
(0.625 0.375 0.875)
(0.875 0.375 0.875)
(0.375 0.625 0.625)
(0.125 0.875 0.625)
(0.375 0.875 0.625)
(0.125 0.625 0.875)
(0.375 0.625 0.875)
(0.125 0.875 0.875)
(0.375 0.875 0.875)
(0.875 0.625 0.625)
(0.625 0.875 0.625)
(0.875 0.875 0.625)
(0.625 0.625 0.875)
(0.875 0.625 0.875)
(0.625 0.875 0.875)
(0.875 0.875 0.875)
)
;

boundaryField
{
    sides
    {
        type            calculated;
        value           nonuniform List<vector> 
96
(
(0.125 1 0.125)
(0.125 1 0.625)
(0.625 1 0.125)
(0.625 1 0.625)
(0 0.125 0.125)
(0 0.625 0.125)
(0 0.125 0.625)
(0 0.625 0.625)
(1 0.125 0.125)
(1 0.625 0.125)
(1 0.125 0.625)
(1 0.625 0.625)
(0.125 0 0.125)
(0.125 0 0.625)
(0.625 0 0.125)
(0.625 0 0.625)
(0.125 0.125 0)
(0.125 0.625 0)
(0.625 0.125 0)
(0.625 0.625 0)
(0.125 0.125 1)
(0.125 0.625 1)
(0.625 0.125 1)
(0.625 0.625 1)
(0.125 1 0.375)
(0.375 1 0.375)
(0.375 1 0.125)
(0.125 1 0.875)
(0.375 1 0.875)
(0.375 1 0.625)
(0.625 1 0.375)
(0.875 1 0.375)
(0.875 1 0.125)
(0.625 1 0.875)
(0.875 1 0.875)
(0.875 1 0.625)
(0 0.125 0.375)
(0 0.375 0.375)
(0 0.375 0.125)
(0 0.625 0.375)
(0 0.875 0.375)
(0 0.875 0.125)
(0 0.125 0.875)
(0 0.375 0.875)
(0 0.375 0.625)
(0 0.625 0.875)
(0 0.875 0.875)
(0 0.875 0.625)
(1 0.375 0.125)
(1 0.375 0.375)
(1 0.125 0.375)
(1 0.875 0.125)
(1 0.875 0.375)
(1 0.625 0.375)
(1 0.375 0.625)
(1 0.375 0.875)
(1 0.125 0.875)
(1 0.875 0.625)
(1 0.875 0.875)
(1 0.625 0.875)
(0.375 0 0.125)
(0.375 0 0.375)
(0.125 0 0.375)
(0.375 0 0.625)
(0.375 0 0.875)
(0.125 0 0.875)
(0.875 0 0.125)
(0.875 0 0.375)
(0.625 0 0.375)
(0.875 0 0.625)
(0.875 0 0.875)
(0.625 0 0.875)
(0.125 0.375 0)
(0.375 0.375 0)
(0.375 0.125 0)
(0.125 0.875 0)
(0.375 0.875 0)
(0.375 0.625 0)
(0.625 0.375 0)
(0.875 0.375 0)
(0.875 0.125 0)
(0.625 0.875 0)
(0.875 0.875 0)
(0.875 0.625 0)
(0.375 0.125 1)
(0.375 0.375 1)
(0.125 0.375 1)
(0.375 0.625 1)
(0.375 0.875 1)
(0.125 0.875 1)
(0.875 0.125 1)
(0.875 0.375 1)
(0.625 0.375 1)
(0.875 0.625 1)
(0.875 0.875 1)
(0.625 0.875 1)
)
;
    }
}


// ************************************************************************* //
